
                                 *****************
                                 * O   R   C   A *
                                 *****************

                                            #,                                       
                                            ###                                      
                                            ####                                     
                                            #####                                    
                                            ######                                   
                                           ########,                                 
                                     ,,################,,,,,                         
                               ,,#################################,,                 
                          ,,##########################################,,             
                       ,#########################################, ''#####,          
                    ,#############################################,,   '####,        
                  ,##################################################,,,,####,       
                ,###########''''           ''''###############################       
              ,#####''   ,,,,##########,,,,          '''####'''          '####       
            ,##' ,,,,###########################,,,                        '##       
           ' ,,###''''                  '''############,,,                           
         ,,##''                                '''############,,,,        ,,,,,,###''
      ,#''                                            '''#######################'''  
     '                                                          ''''####''''         
             ,#######,   #######,   ,#######,      ##                                
            ,#'     '#,  ##    ##  ,#'     '#,    #''#        ######   ,####,        
            ##       ##  ##   ,#'  ##            #'  '#       #        #'  '#        
            ##       ##  #######   ##           ,######,      #####,   #    #        
            '#,     ,#'  ##    ##  '#,     ,#' ,#      #,         ##   #,  ,#        
             '#######'   ##     ##  '#######'  #'      '#     #####' # '####'        



                  #######################################################
                  #                        -***-                        #
                  #          Department of theory and spectroscopy      #
                  #    Directorship and core code : Frank Neese         #
                  #        Max Planck Institute fuer Kohlenforschung    #
                  #                Kaiser Wilhelm Platz 1               #
                  #                 D-45470 Muelheim/Ruhr               #
                  #                      Germany                        #
                  #                                                     #
                  #                  All rights reserved                #
                  #                        -***-                        #
                  #######################################################


                         Program Version 5.0.3 -  RELEASE  -


 With contributions from (in alphabetic order):
   Daniel Aravena         : Magnetic Suceptibility
   Michael Atanasov       : Ab Initio Ligand Field Theory (pilot matlab implementation)
   Alexander A. Auer      : GIAO ZORA, VPT2 properties, NMR spectrum
   Ute Becker             : Parallelization
   Giovanni Bistoni       : ED, misc. LED, open-shell LED, HFLD
   Martin Brehm           : Molecular dynamics
   Dmytro Bykov           : SCF Hessian
   Vijay G. Chilkuri      : MRCI spin determinant printing, contributions to CSF-ICE
   Dipayan Datta          : RHF DLPNO-CCSD density
   Achintya Kumar Dutta   : EOM-CC, STEOM-CC
   Dmitry Ganyushin       : Spin-Orbit,Spin-Spin,Magnetic field MRCI
   Miquel Garcia          : C-PCM and meta-GGA Hessian, CC/C-PCM, Gaussian charge scheme
   Yang Guo               : DLPNO-NEVPT2, F12-NEVPT2, CIM, IAO-localization
   Andreas Hansen         : Spin unrestricted coupled pair/coupled cluster methods
   Benjamin Helmich-Paris : MC-RPA, TRAH-SCF, COSX integrals
   Lee Huntington         : MR-EOM, pCC
   Robert Izsak           : Overlap fitted RIJCOSX, COSX-SCS-MP3, EOM
   Marcus Kettner         : VPT2
   Christian Kollmar      : KDIIS, OOCD, Brueckner-CCSD(T), CCSD density, CASPT2, CASPT2-K
   Simone Kossmann        : Meta GGA functionals, TD-DFT gradient, OOMP2, MP2 Hessian
   Martin Krupicka        : Initial AUTO-CI
   Lucas Lang             : DCDCAS
   Marvin Lechner         : AUTO-CI (C++ implementation), FIC-MRCC
   Dagmar Lenk            : GEPOL surface, SMD
   Dimitrios Liakos       : Extrapolation schemes; Compound Job, initial MDCI parallelization
   Dimitrios Manganas     : Further ROCIS development; embedding schemes
   Dimitrios Pantazis     : SARC Basis sets
   Anastasios Papadopoulos: AUTO-CI, single reference methods and gradients
   Taras Petrenko         : DFT Hessian,TD-DFT gradient, ASA, ECA, R-Raman, ABS, FL, XAS/XES, NRVS
   Peter Pinski           : DLPNO-MP2, DLPNO-MP2 Gradient
   Christoph Reimann      : Effective Core Potentials
   Marius Retegan         : Local ZFS, SOC
   Christoph Riplinger    : Optimizer, TS searches, QM/MM, DLPNO-CCSD(T), (RO)-DLPNO pert. Triples
   Tobias Risthaus        : Range-separated hybrids, TD-DFT gradient, RPA, STAB
   Michael Roemelt        : Original ROCIS implementation
   Masaaki Saitow         : Open-shell DLPNO-CCSD energy and density
   Barbara Sandhoefer     : DKH picture change effects
   Avijit Sen             : IP-ROCIS
   Kantharuban Sivalingam : CASSCF convergence, NEVPT2, FIC-MRCI
   Bernardo de Souza      : ESD, SOC TD-DFT
   Georgi Stoychev        : AutoAux, RI-MP2 NMR, DLPNO-MP2 response
   Willem Van den Heuvel  : Paramagnetic NMR
   Boris Wezisla          : Elementary symmetry handling
   Frank Wennmohs         : Technical directorship


 We gratefully acknowledge several colleagues who have allowed us to
 interface, adapt or use parts of their codes:
   Stefan Grimme, W. Hujo, H. Kruse, P. Pracht,  : VdW corrections, initial TS optimization,
                  C. Bannwarth, S. Ehlert          DFT functionals, gCP, sTDA/sTD-DF
   Ed Valeev, F. Pavosevic, A. Kumar             : LibInt (2-el integral package), F12 methods
   Garnet Chan, S. Sharma, J. Yang, R. Olivares  : DMRG
   Ulf Ekstrom                                   : XCFun DFT Library
   Mihaly Kallay                                 : mrcc  (arbitrary order and MRCC methods)
   Jiri Pittner, Ondrej Demel                    : Mk-CCSD
   Frank Weinhold                                : gennbo (NPA and NBO analysis)
   Christopher J. Cramer and Donald G. Truhlar   : smd solvation model
   Lars Goerigk                                  : TD-DFT with DH, B97 family of functionals
   V. Asgeirsson, H. Jonsson                     : NEB implementation
   FAccTs GmbH                                   : IRC, NEB, NEB-TS, DLPNO-Multilevel, CI-OPT
                                                   MM, QMMM, 2- and 3-layer-ONIOM, Crystal-QMMM,
                                                   LR-CPCM, SF, NACMEs, symmetry and pop. for TD-DFT,
                                                   nearIR, NL-DFT gradient (VV10), updates on ESD,
                                                   ML-optimized integration grids
   S Lehtola, MJT Oliveira, MAL Marques          : LibXC Library
   Liviu Ungur et al                             : ANISO software


 Your calculation uses the libint2 library for the computation of 2-el integrals
 For citations please refer to: http://libint.valeyev.net

 Your ORCA version has been built with support for libXC version: 5.1.0
 For citations please refer to: https://tddft.org/programs/libxc/

 This ORCA versions uses:
   CBLAS   interface :  Fast vector & matrix operations
   LAPACKE interface :  Fast linear algebra routines
   SCALAPACK package :  Parallel linear algebra routines
   Shared memory     :  Shared parallel matrices
   BLAS/LAPACK       :  OpenBLAS 0.3.15  USE64BITINT DYNAMIC_ARCH NO_AFFINITY Haswell SINGLE_THREADED
        Core in use  :  Haswell
   Copyright (c) 2011-2014, The OpenBLAS Project




***************************************
The coordinates will be read from file: struc.xyz
***************************************


================================================================================

----- Orbital basis set information -----
Your calculation utilizes the basis: def2-QZVP
   F. Weigend and R. Ahlrichs, Phys. Chem. Chem. Phys. 7, 3297 (2005).

----- AuxJ basis set information -----
Your calculation utilizes the auxiliary basis: def2/J
   F. Weigend, Phys. Chem. Chem. Phys. 8, 1057 (2006).

================================================================================
                                        WARNINGS
                       Please study these warnings very carefully!
================================================================================


INFO   : the flag for use of the SHARK integral package has been found!

================================================================================
                                       INPUT FILE
================================================================================
NAME = inp.txt
|  1> ! PBE
|  2> ! def2-qzvp
|  3> *xyzfile  0  2  struc.xyz
|  4> %scf
|  5> MaxIter  500
|  6> end
|  7> ! StrongSCF
|  8> ! defgrid2
|  9> ! UKS
| 10> %pal
| 11> nprocs  20
| 12> end
| 13> 
| 14>                          ****END OF INPUT****
================================================================================

                       ****************************
                       * Single Point Calculation *
                       ****************************

---------------------------------
CARTESIAN COORDINATES (ANGSTROEM)
---------------------------------
  C      0.000000    0.000000    0.000000
  H      0.538658    0.932983    0.000000
  H      0.538658   -0.932983    0.000000
  H     -1.077316    0.000000    0.000000

----------------------------
CARTESIAN COORDINATES (A.U.)
----------------------------
  NO LB      ZA    FRAG     MASS         X           Y           Z
   0 C     6.0000    0    12.011    0.000000    0.000000    0.000000
   1 H     1.0000    0     1.008    1.017916    1.763083    0.000000
   2 H     1.0000    0     1.008    1.017916   -1.763083    0.000000
   3 H     1.0000    0     1.008   -2.035833    0.000000    0.000000

--------------------------------
INTERNAL COORDINATES (ANGSTROEM)
--------------------------------
 C      0   0   0     0.000000000000     0.00000000     0.00000000
 H      1   0   0     1.077316238485     0.00000000     0.00000000
 H      1   2   0     1.077316238485   119.99999991     0.00000000
 H      1   2   3     1.077316240000   120.00000005   180.00000000

---------------------------
INTERNAL COORDINATES (A.U.)
---------------------------
 C      0   0   0     0.000000000000     0.00000000     0.00000000
 H      1   0   0     2.035832650363     0.00000000     0.00000000
 H      1   2   0     2.035832650363   119.99999991     0.00000000
 H      1   2   3     2.035832653226   120.00000005   180.00000000

---------------------
BASIS SET INFORMATION
---------------------
There are 2 groups of distinct atoms

 Group   1 Type C   : 15s8p3d2f1g contracted to 7s4p3d2f1g pattern {8211111/5111/111/11/1}
 Group   2 Type H   : 7s3p2d1f contracted to 4s3p2d1f pattern {4111/111/11/1}

Atom   0C    basis set group =>   1
Atom   1H    basis set group =>   2
Atom   2H    basis set group =>   2
Atom   3H    basis set group =>   2
---------------------------------
AUXILIARY/J BASIS SET INFORMATION
---------------------------------
There are 2 groups of distinct atoms

 Group   1 Type C   : 12s5p4d2f1g contracted to 6s4p3d1f1g pattern {711111/2111/211/2/1}
 Group   2 Type H   : 5s2p1d contracted to 3s1p1d pattern {311/2/1}

Atom   0C    basis set group =>   1
Atom   1H    basis set group =>   2
Atom   2H    basis set group =>   2
Atom   3H    basis set group =>   2


           ************************************************************
           *        Program running with 20 parallel MPI-processes    *
           *              working on a common directory               *
           ************************************************************
------------------------------------------------------------------------------
                           ORCA GTO INTEGRAL CALCULATION
                           -- RI-GTO INTEGRALS CHOSEN --
------------------------------------------------------------------------------
------------------------------------------------------------------------------
                   ___                                                        
                  /   \      - P O W E R E D   B Y -                         
                 /     \                                                     
                 |  |  |   _    _      __       _____    __    __             
                 |  |  |  | |  | |    /  \     |  _  \  |  |  /  |          
                  \  \/   | |  | |   /    \    | | | |  |  | /  /          
                 / \  \   | |__| |  /  /\  \   | |_| |  |  |/  /          
                |  |  |   |  __  | /  /__\  \  |    /   |      \           
                |  |  |   | |  | | |   __   |  |    \   |  |\   \          
                \     /   | |  | | |  |  |  |  | |\  \  |  | \   \       
                 \___/    |_|  |_| |__|  |__|  |_| \__\ |__|  \__/        
                                                                              
                      - O R C A' S   B I G   F R I E N D -                    
                                      &                                       
                       - I N T E G R A L  F E E D E R -                       
                                                                              
 v1 FN, 2020, v2 2021                                                         
------------------------------------------------------------------------------


Reading SHARK input file inp.SHARKINP.tmp ... ok
----------------------
SHARK INTEGRAL PACKAGE
----------------------

Number of atoms                             ...      4
Number of basis functions                   ...    147
Number of shells                            ...     47
Maximum angular momentum                    ...      4
Integral batch strategy                     ... SHARK/LIBINT Hybrid
RI-J (if used) integral strategy            ... SPLIT-RIJ (Revised 2003 algorithm where possible)
Printlevel                                  ...      1
Contraction scheme used                     ... SEGMENTED contraction
Coulomb Range Separation                    ... NOT USED
Exchange Range Separation                   ... NOT USED
Finite Nucleus Model                        ... NOT USED
Auxiliary Coulomb fitting basis             ... AVAILABLE
   # of basis functions in Aux-J            ...     82
   # of shells in Aux-J                     ...     30
   Maximum angular momentum in Aux-J        ...      4
Auxiliary J/K fitting basis                 ... NOT available
Auxiliary Correlation fitting basis         ... NOT available
Auxiliary 'external' fitting basis          ... NOT available
Integral threshold                          ...     1.000000e-10
Primitive cut-off                           ...     3.000000e-11
Primitive pair pre-selection threshold      ...     3.000000e-11

Calculating pre-screening integrals         ... done (  0.1 sec) Dimension = 47
Organizing shell pair data                  ... done (  0.1 sec)
Shell pair information
Total number of shell pairs                 ...      1128
Shell pairs after pre-screening             ...      1128
Total number of primitive shell pairs       ...      2403
Primitive shell pairs kept                  ...      2283
          la=0 lb=0:    190 shell pairs
          la=1 lb=0:    247 shell pairs
          la=1 lb=1:     91 shell pairs
          la=2 lb=0:    171 shell pairs
          la=2 lb=1:    117 shell pairs
          la=2 lb=2:     45 shell pairs
          la=3 lb=0:     95 shell pairs
          la=3 lb=1:     65 shell pairs
          la=3 lb=2:     45 shell pairs
          la=3 lb=3:     15 shell pairs
          la=4 lb=0:     19 shell pairs
          la=4 lb=1:     13 shell pairs
          la=4 lb=2:      9 shell pairs
          la=4 lb=3:      5 shell pairs
          la=4 lb=4:      1 shell pairs

Calculating one electron integrals          ... done (  0.0 sec)
Calculating RI/J V-Matrix + Cholesky decomp.... done (  0.1 sec)
Calculating Nuclear repulsion               ... done (  0.0 sec) ENN=      9.692373680520 Eh

SHARK setup successfully completed in   0.5 seconds

Maximum memory used throughout the entire GTOINT-calculation: 26.9 MB


           ************************************************************
           *        Program running with 20 parallel MPI-processes    *
           *              working on a common directory               *
           ************************************************************
-------------------------------------------------------------------------------
                                 ORCA SCF
-------------------------------------------------------------------------------

------------
SCF SETTINGS
------------
Hamiltonian:
 Density Functional     Method          .... DFT(GTOs)
 Exchange Functional    Exchange        .... PBE
   PBE kappa parameter   XKappa         ....  0.804000
   PBE mue parameter    XMuePBE         ....  0.219520
 Correlation Functional Correlation     .... PBE
   PBE beta parameter  CBetaPBE         ....  0.066725
 LDA part of GGA corr.  LDAOpt          .... PW91-LDA
 Gradients option       PostSCFGGA      .... off
   Density functional embedding theory  .... OFF
   NL short-range parameter             ....  6.400000
 RI-approximation to the Coulomb term is turned on
   Number of AuxJ basis functions       .... 82


General Settings:
 Integral files         IntName         .... inp
 Hartree-Fock type      HFTyp           .... UHF
 Total Charge           Charge          ....    0
 Multiplicity           Mult            ....    2
 Number of Electrons    NEL             ....    9
 Basis Dimension        Dim             ....  147
 Nuclear Repulsion      ENuc            ....      9.6923736805 Eh

Convergence Acceleration:
 DIIS                   CNVDIIS         .... on
   Start iteration      DIISMaxIt       ....    12
   Startup error        DIISStart       ....  0.200000
   # of expansion vecs  DIISMaxEq       ....     5
   Bias factor          DIISBfac        ....   1.050
   Max. coefficient     DIISMaxC        ....  10.000
 Trust-Rad. Augm. Hess. CNVTRAH         .... auto
   Auto Start mean grad. ratio tolernc. ....  1.125000
   Auto Start start iteration           ....    20
   Auto Start num. interpolation iter.  ....    10
   Max. Number of Micro iterations      ....    16
   Max. Number of Macro iterations      .... Maxiter - #DIIS iter
   Number of Davidson start vectors     ....     2
   Converg. threshold I  (grad. norm)   ....   2.000e-05
   Converg. threshold II (energy diff.) ....   3.000e-07
   Grad. Scal. Fac. for Micro threshold ....   0.100
   Minimum threshold for Micro iter.    ....   0.010
   NR start threshold (gradient norm)   ....   0.001
   Initial trust radius                 ....   0.400
   Minimum AH scaling param. (alpha)    ....   1.000
   Maximum AH scaling param. (alpha)    .... 1000.000
   Orbital update algorithm             .... Taylor
   White noise on init. David. guess    .... on
   Maximum white noise                  ....   0.010
   Quad. conv. algorithm                .... NR
 SOSCF                  CNVSOSCF        .... off
 Level Shifting         CNVShift        .... on
   Level shift para.    LevelShift      ....    0.2500
   Turn off err/grad.   ShiftErr        ....    0.0010
 Zerner damping         CNVZerner       .... off
 Static damping         CNVDamp         .... on
   Fraction old density DampFac         ....    0.7000
   Max. Damping (<1)    DampMax         ....    0.9800
   Min. Damping (>=0)   DampMin         ....    0.0000
   Turn off err/grad.   DampErr         ....    0.1000
 Fernandez-Rico         CNVRico         .... off

SCF Procedure:
 Maximum # iterations   MaxIter         ....   500
 SCF integral mode      SCFMode         .... Direct
   Integral package                     .... SHARK and LIBINT hybrid scheme
 Reset frequency        DirectResetFreq ....    20
 Integral Threshold     Thresh          ....  1.000e-10 Eh
 Primitive CutOff       TCut            ....  3.000e-11 Eh

Convergence Tolerance:
 Convergence Check Mode ConvCheckMode   .... Total+1el-Energy
 Convergence forced     ConvForced      .... 0
 Energy Change          TolE            ....  3.000e-07 Eh
 1-El. energy change                    ....  3.000e-04 Eh
 DIIS Error             TolErr          ....  3.000e-06


Diagonalization of the overlap matrix:
Smallest eigenvalue                        ... 1.871e-04
Time for diagonalization                   ...    0.004 sec
Threshold for overlap eigenvalues          ... 1.000e-08
Number of eigenvalues below threshold      ... 0
Time for construction of square roots      ...    0.016 sec
Total time needed                          ...    0.021 sec

Time for model grid setup =    0.075 sec

------------------------------
INITIAL GUESS: MODEL POTENTIAL
------------------------------
Loading Hartree-Fock densities                     ... done
Calculating cut-offs                               ... done
Initializing the effective Hamiltonian             ... done
Setting up the integral package (SHARK)            ... done
Starting the Coulomb interaction                   ... done (   0.1 sec)
Reading the grid                                   ... done
Mapping shells                                     ... done
Starting the XC term evaluation                    ... done (   0.0 sec)
  promolecular density results
     # of electrons  =      8.998630365
     EX              =     -5.933516780
     EC              =     -0.258961071
     EX+EC           =     -6.192477850
Transforming the Hamiltonian                       ... done (   0.0 sec)
Diagonalizing the Hamiltonian                      ... done (   0.0 sec)
Back transforming the eigenvectors                 ... done (   0.0 sec)
Now organizing SCF variables                       ... done
                      ------------------
                      INITIAL GUESS DONE (   0.3 sec)
                      ------------------
-------------------
DFT GRID GENERATION
-------------------

General Integration Accuracy     IntAcc      ... 4.388
Radial Grid Type                 RadialGrid  ... OptM3 with GC (2021)
Angular Grid (max. ang.)         AngularGrid ... 4 (Lebedev-302)
Angular grid pruning method      GridPruning ... 4 (adaptive)
Weight generation scheme         WeightScheme... Becke
Basis function cutoff            BFCut       ... 3.0000e-11
Integration weight cutoff        WCut        ... 1.0000e-14
Angular grids for H and He will be reduced by one unit
Partially contracted basis set               ... off
Rotationally invariant grid construction     ... off

Total number of grid points                  ...    16338
Total number of batches                      ...      257
Average number of points per batch           ...       63
Average number of grid points per atom       ...     4084
Time for grid setup =    0.141 sec

--------------
SCF ITERATIONS
--------------
ITER       Energy         Delta-E        Max-DP      RMS-DP      [F,P]     Damp
               ***  Starting incremental Fock matrix formation  ***
  0    -39.7542241086   0.000000000000 0.01291495  0.00024563  0.0832401 0.7000
  1    -39.7721230132  -0.017898904618 0.01097420  0.00018186  0.0403471 0.7000
                               ***Turning on DIIS***
  2    -39.7791509325  -0.007027919277 0.01906099  0.00032190  0.0190707 0.0000
  3    -39.7884720931  -0.009321160565 0.00975181  0.00014826  0.0282692 0.0000
  4    -39.7920132342  -0.003541141156 0.00443152  0.00004451  0.0054243 0.0000
  5    -39.7921587105  -0.000145476248 0.00184683  0.00002139  0.0016893 0.0000
  6    -39.7921713532  -0.000012642677 0.00135664  0.00001565  0.0006010 0.0000
  7    -39.7921735921  -0.000002238972 0.00007105  0.00000108  0.0000617 0.0000
  8    -39.7921736181  -0.000000026020 0.00000920  0.00000019  0.0000239 0.0000
                 **** Energy Check signals convergence ****

               *****************************************************
               *                     SUCCESS                       *
               *           SCF CONVERGED AFTER   9 CYCLES          *
               *****************************************************


----------------
TOTAL SCF ENERGY
----------------

Total Energy       :          -39.79217362 Eh           -1082.80009 eV

Components:
Nuclear Repulsion  :            9.69237368 Eh             263.74290 eV
Electronic Energy  :          -49.48454730 Eh           -1346.54299 eV
One Electron Energy:          -71.68723663 Eh           -1950.70888 eV
Two Electron Energy:           22.20268933 Eh             604.16589 eV

Virial components:
Potential Energy   :          -79.40728124 Eh           -2160.78197 eV
Kinetic Energy     :           39.61510763 Eh            1077.98188 eV
Virial Ratio       :            2.00446966


DFT components:
N(Alpha)           :        4.999986694936 electrons
N(Beta)            :        3.999998389941 electrons
N(Total)           :        8.999985084877 electrons
E(X)               :       -6.166656997072 Eh       
E(C)               :       -0.258633322983 Eh       
E(XC)              :       -6.425290320056 Eh       
DFET-embed. en.    :        0.000000000000 Eh       

---------------
SCF CONVERGENCE
---------------

  Last Energy change         ...   -1.0681e-09  Tolerance :   3.0000e-07
  Last MAX-Density change    ...    2.2302e-06  Tolerance :   3.0000e-06
  Last RMS-Density change    ...    4.2617e-08  Tolerance :   1.0000e-07
  Last DIIS Error            ...    2.0153e-06  Tolerance :   3.0000e-06

             **** THE GBW FILE WAS UPDATED (inp.gbw) ****
             **** DENSITY inp.scfp WAS UPDATED ****
             **** ENERGY FILE WAS UPDATED (inp.en.tmp) ****
----------------------
UHF SPIN CONTAMINATION
----------------------

Warning: in a DFT calculation there is little theoretical justification to 
         calculate <S**2> as in Hartree-Fock theory. We will do it anyways
         but you should keep in mind that the values have only limited relevance

Expectation value of <S**2>     :     0.753719
Ideal value S*(S+1) for S=0.5   :     0.750000
Deviation                       :     0.003719

             **** THE GBW FILE WAS UPDATED (inp.gbw) ****
             **** DENSITY inp.scfp WAS UPDATED ****
----------------
ORBITAL ENERGIES
----------------
                 SPIN UP ORBITALS
  NO   OCC          E(Eh)            E(eV) 
   0   1.0000      -9.898997      -269.3654 
   1   1.0000      -0.621621       -16.9152 
   2   1.0000      -0.377124       -10.2621 
   3   1.0000      -0.377124       -10.2621 
   4   1.0000      -0.199030        -5.4159 
   5   0.0000       0.013853         0.3770 
   6   0.0000       0.080143         2.1808 
   7   0.0000       0.080150         2.1810 
   8   0.0000       0.115290         3.1372 
   9   0.0000       0.115309         3.1377 
  10   0.0000       0.119833         3.2608 
  11   0.0000       0.200999         5.4695 
  12   0.0000       0.317322         8.6348 
  13   0.0000       0.317341         8.6353 
  14   0.0000       0.321484         8.7480 
  15   0.0000       0.380089        10.3427 
  16   0.0000       0.380091        10.3428 
  17   0.0000       0.580145        15.7865 
  18   0.0000       0.580161        15.7870 
  19   0.0000       0.582381        15.8474 
  20   0.0000       0.600266        16.3341 
  21   0.0000       0.679627        18.4936 
  22   0.0000       0.726076        19.7575 
  23   0.0000       0.726086        19.7578 
  24   0.0000       0.739793        20.1308 
  25   0.0000       0.744088        20.2477 
  26   0.0000       0.744097        20.2479 
  27   0.0000       0.810514        22.0552 
  28   0.0000       0.894537        24.3416 
  29   0.0000       0.894548        24.3419 
  30   0.0000       1.061591        28.8874 
  31   0.0000       1.133323        30.8393 
  32   0.0000       1.133339        30.8397 
  33   0.0000       1.222639        33.2697 
  34   0.0000       1.222651        33.2700 
  35   0.0000       1.591471        43.3061 
  36   0.0000       1.591474        43.3062 
  37   0.0000       1.620762        44.1032 
  38   0.0000       1.687852        45.9288 
  39   0.0000       1.785349        48.5818 
  40   0.0000       1.785351        48.5819 
  41   0.0000       1.807424        49.1825 
  42   0.0000       1.807435        49.1828 
  43   0.0000       1.830611        49.8135 
  44   0.0000       1.862651        50.6853 
  45   0.0000       1.970141        53.6103 
  46   0.0000       2.031657        55.2842 
  47   0.0000       2.031658        55.2842 
  48   0.0000       2.244172        61.0670 
  49   0.0000       2.244174        61.0671 
  50   0.0000       2.318300        63.0841 
  51   0.0000       2.356829        64.1326 
  52   0.0000       2.363285        64.3083 
  53   0.0000       2.363289        64.3084 
  54   0.0000       2.464447        67.0610 
  55   0.0000       2.464460        67.0614 
  56   0.0000       2.498734        67.9940 
  57   0.0000       2.605100        70.8884 
  58   0.0000       2.605128        70.8891 
  59   0.0000       2.643985        71.9465 
  60   0.0000       2.716345        73.9155 
  61   0.0000       2.753184        74.9179 
  62   0.0000       2.753193        74.9182 
  63   0.0000       2.990556        81.3772 
  64   0.0000       3.171489        86.3006 
  65   0.0000       3.171496        86.3008 
  66   0.0000       3.318656        90.3052 
  67   0.0000       3.318658        90.3053 
  68   0.0000       3.399787        92.5129 
  69   0.0000       3.489423        94.9520 
  70   0.0000       3.672201        99.9257 
  71   0.0000       3.672201        99.9257 
  72   0.0000       3.784678       102.9863 
  73   0.0000       3.784685       102.9865 
  74   0.0000       3.978361       108.2567 
  75   0.0000       4.956378       134.8699 
  76   0.0000       5.030615       136.8900 
  77   0.0000       5.030618       136.8901 
  78   0.0000       5.067052       137.8815 
  79   0.0000       5.134343       139.7126 
  80   0.0000       5.134352       139.7128 
  81   0.0000       5.406743       147.1250 
  82   0.0000       5.406747       147.1251 
  83   0.0000       5.437023       147.9489 
  84   0.0000       5.458509       148.5336 
  85   0.0000       5.637690       153.4093 
  86   0.0000       5.637694       153.4094 
  87   0.0000       5.749471       156.4511 
  88   0.0000       5.762676       156.8104 
  89   0.0000       5.872505       159.7990 
  90   0.0000       5.879633       159.9929 
  91   0.0000       5.879635       159.9930 
  92   0.0000       5.957384       162.1087 
  93   0.0000       5.957390       162.1088 
  94   0.0000       6.251925       170.1235 
  95   0.0000       6.262366       170.4076 
  96   0.0000       6.262367       170.4077 
  97   0.0000       6.357928       173.0080 
  98   0.0000       6.578934       179.0219 
  99   0.0000       6.578941       179.0221 
 100   0.0000       6.591586       179.3662 
 101   0.0000       6.591596       179.3664 
 102   0.0000       6.735326       183.2775 
 103   0.0000       6.965177       189.5321 
 104   0.0000       6.965182       189.5322 
 105   0.0000       7.089477       192.9145 
 106   0.0000       7.089484       192.9147 
 107   0.0000       7.285388       198.2455 
 108   0.0000       7.285407       198.2460 
 109   0.0000       7.328144       199.4089 
 110   0.0000       7.416113       201.8027 
 111   0.0000       7.419188       201.8864 
 112   0.0000       7.419204       201.8868 
 113   0.0000       7.454621       202.8506 
 114   0.0000       7.454629       202.8508 
 115   0.0000       7.506368       204.2587 
 116   0.0000       7.842465       213.4043 
 117   0.0000       8.041703       218.8258 
 118   0.0000       8.065527       219.4742 
 119   0.0000       8.067073       219.5162 
 120   0.0000       8.067081       219.5164 
 121   0.0000       8.129694       221.2202 
 122   0.0000       8.129723       221.2210 
 123   0.0000       8.141679       221.5464 
 124   0.0000       8.141687       221.5466 
 125   0.0000       8.222170       223.7366 
 126   0.0000       8.334355       226.7893 
 127   0.0000       8.334356       226.7894 
 128   0.0000       8.631534       234.8760 
 129   0.0000       8.737274       237.7533 
 130   0.0000       8.903386       242.2735 
 131   0.0000       9.015064       245.3124 
 132   0.0000       9.015065       245.3124 
 133   0.0000       9.369232       254.9498 
 134   0.0000       9.369234       254.9498 
 135   0.0000       9.639786       262.3119 
 136   0.0000       9.772861       265.9331 
 137   0.0000       9.772876       265.9335 
 138   0.0000       9.854651       268.1587 
 139   0.0000      10.262159       279.2475 
 140   0.0000      10.961884       298.2880 
 141   0.0000      10.961894       298.2883 
 142   0.0000      11.264465       306.5217 
 143   0.0000      11.264480       306.5221 
 144   0.0000      13.203349       359.2814 
 145   0.0000      28.475566       774.8595 
 146   0.0000     147.174388      4004.8187 

                 SPIN DOWN ORBITALS
  NO   OCC          E(Eh)            E(eV) 
   0   1.0000      -9.885297      -268.9926 
   1   1.0000      -0.587232       -15.9794 
   2   1.0000      -0.367255        -9.9935 
   3   1.0000      -0.367255        -9.9935 
   4   0.0000      -0.107241        -2.9182 
   5   0.0000       0.024193         0.6583 
   6   0.0000       0.084891         2.3100 
   7   0.0000       0.084896         2.3101 
   8   0.0000       0.120869         3.2890 
   9   0.0000       0.120880         3.2893 
  10   0.0000       0.161937         4.4065 
  11   0.0000       0.236129         6.4254 
  12   0.0000       0.324242         8.8231 
  13   0.0000       0.324253         8.8234 
  14   0.0000       0.340156         9.2561 
  15   0.0000       0.407621        11.0919 
  16   0.0000       0.407622        11.0920 
  17   0.0000       0.586603        15.9623 
  18   0.0000       0.586611        15.9625 
  19   0.0000       0.598568        16.2879 
  20   0.0000       0.614249        16.7146 
  21   0.0000       0.716399        19.4942 
  22   0.0000       0.748716        20.3736 
  23   0.0000       0.748724        20.3738 
  24   0.0000       0.762611        20.7517 
  25   0.0000       0.762615        20.7518 
  26   0.0000       0.794436        21.6177 
  27   0.0000       0.827804        22.5257 
  28   0.0000       0.897444        24.4207 
  29   0.0000       0.897457        24.4210 
  30   0.0000       1.080741        29.4085 
  31   0.0000       1.148020        31.2392 
  32   0.0000       1.148027        31.2394 
  33   0.0000       1.230159        33.4743 
  34   0.0000       1.230167        33.4746 
  35   0.0000       1.636987        44.5447 
  36   0.0000       1.636989        44.5447 
  37   0.0000       1.680987        45.7420 
  38   0.0000       1.689581        45.9758 
  39   0.0000       1.797126        48.9023 
  40   0.0000       1.797129        48.9024 
  41   0.0000       1.839322        50.0505 
  42   0.0000       1.839334        50.0508 
  43   0.0000       1.885506        51.3072 
  44   0.0000       1.893667        51.5293 
  45   0.0000       1.976739        53.7898 
  46   0.0000       2.070917        56.3525 
  47   0.0000       2.070920        56.3526 
  48   0.0000       2.254952        61.3604 
  49   0.0000       2.254955        61.3604 
  50   0.0000       2.344968        63.8098 
  51   0.0000       2.380623        64.7800 
  52   0.0000       2.380634        64.7803 
  53   0.0000       2.381418        64.8017 
  54   0.0000       2.463158        67.0259 
  55   0.0000       2.463171        67.0263 
  56   0.0000       2.551153        69.4204 
  57   0.0000       2.615364        71.1677 
  58   0.0000       2.615387        71.1683 
  59   0.0000       2.641441        71.8773 
  60   0.0000       2.718404        73.9715 
  61   0.0000       2.773290        75.4651 
  62   0.0000       2.773301        75.4654 
  63   0.0000       3.032786        82.5263 
  64   0.0000       3.176678        86.4418 
  65   0.0000       3.176686        86.4420 
  66   0.0000       3.363687        91.5306 
  67   0.0000       3.363689        91.5306 
  68   0.0000       3.444811        93.7381 
  69   0.0000       3.536956        96.2455 
  70   0.0000       3.684655       100.2646 
  71   0.0000       3.684657       100.2646 
  72   0.0000       3.794266       103.2472 
  73   0.0000       3.794273       103.2474 
  74   0.0000       3.990757       108.5940 
  75   0.0000       5.018403       136.5577 
  76   0.0000       5.061115       137.7200 
  77   0.0000       5.061118       137.7200 
  78   0.0000       5.089388       138.4893 
  79   0.0000       5.194139       141.3397 
  80   0.0000       5.194148       141.3399 
  81   0.0000       5.448569       148.2631 
  82   0.0000       5.448570       148.2631 
  83   0.0000       5.456444       148.4774 
  84   0.0000       5.512274       149.9966 
  85   0.0000       5.697631       155.0404 
  86   0.0000       5.697632       155.0405 
  87   0.0000       5.777946       157.2259 
  88   0.0000       5.778882       157.2514 
  89   0.0000       5.871713       159.7774 
  90   0.0000       5.890984       160.3018 
  91   0.0000       5.890988       160.3019 
  92   0.0000       5.963264       162.2687 
  93   0.0000       5.963268       162.2688 
  94   0.0000       6.275884       170.7755 
  95   0.0000       6.275885       170.7755 
  96   0.0000       6.276285       170.7864 
  97   0.0000       6.374269       173.4527 
  98   0.0000       6.605212       179.7369 
  99   0.0000       6.605221       179.7372 
 100   0.0000       6.649265       180.9357 
 101   0.0000       6.649270       180.9358 
 102   0.0000       6.824756       185.7111 
 103   0.0000       6.972569       189.7333 
 104   0.0000       6.972574       189.7334 
 105   0.0000       7.100019       193.2013 
 106   0.0000       7.100029       193.2016 
 107   0.0000       7.281279       198.1337 
 108   0.0000       7.281295       198.1341 
 109   0.0000       7.339528       199.7187 
 110   0.0000       7.416102       201.8024 
 111   0.0000       7.435438       202.3286 
 112   0.0000       7.435454       202.3290 
 113   0.0000       7.471640       203.3137 
 114   0.0000       7.471645       203.3138 
 115   0.0000       7.530056       204.9032 
 116   0.0000       7.850209       213.6150 
 117   0.0000       8.038301       218.7333 
 118   0.0000       8.063337       219.4146 
 119   0.0000       8.072681       219.6688 
 120   0.0000       8.072687       219.6690 
 121   0.0000       8.128003       221.1742 
 122   0.0000       8.128035       221.1751 
 123   0.0000       8.138156       221.4505 
 124   0.0000       8.138162       221.4506 
 125   0.0000       8.237255       224.1471 
 126   0.0000       8.339974       226.9422 
 127   0.0000       8.339974       226.9422 
 128   0.0000       8.638338       235.0611 
 129   0.0000       8.755671       238.2539 
 130   0.0000       8.898086       242.1292 
 131   0.0000       9.016875       245.3617 
 132   0.0000       9.016876       245.3617 
 133   0.0000       9.366915       254.8867 
 134   0.0000       9.366919       254.8868 
 135   0.0000       9.642436       262.3840 
 136   0.0000       9.799042       266.6455 
 137   0.0000       9.799060       266.6460 
 138   0.0000       9.904040       269.5026 
 139   0.0000      10.264198       279.3030 
 140   0.0000      10.970261       298.5160 
 141   0.0000      10.970271       298.5162 
 142   0.0000      11.270185       306.6773 
 143   0.0000      11.270197       306.6776 
 144   0.0000      13.221813       359.7838 
 145   0.0000      28.512338       775.8602 
 146   0.0000     147.183512      4005.0670 

                    ********************************
                    * MULLIKEN POPULATION ANALYSIS *
                    ********************************

--------------------------------------------
MULLIKEN ATOMIC CHARGES AND SPIN POPULATIONS
--------------------------------------------
   0 C :   -0.168893    1.130861
   1 H :    0.056303   -0.043612
   2 H :    0.056303   -0.043612
   3 H :    0.056287   -0.043637
Sum of atomic charges         :   -0.0000000
Sum of atomic spin populations:    1.0000000

-----------------------------------------------------
MULLIKEN REDUCED ORBITAL CHARGES AND SPIN POPULATIONS
-----------------------------------------------------
CHARGE
  0 C s       :     3.370218  s :     3.370218
      pz      :     0.942065  p :     2.791508
      px      :     0.924754
      py      :     0.924689
      dz2     :     0.006240  d :     0.007002
      dxz     :    -0.000000
      dyz     :     0.000000
      dx2y2   :     0.000383
      dxy     :     0.000380
      f0      :    -0.000185  f :     0.000456
      f+1     :    -0.000501
      f-1     :    -0.000501
      f+2     :    -0.000000
      f-2     :    -0.000000
      f+3     :     0.001643
      f-3     :     0.000000
      g0      :    -0.000001  g :    -0.000291
      g+1     :    -0.000000
      g-1     :     0.000000
      g+2     :    -0.000035
      g-2     :    -0.000035
      g+3     :    -0.000009
      g-3     :    -0.000000
      g+4     :    -0.000105
      g-4     :    -0.000105
  1 H s       :     0.897188  s :     0.897188
      pz      :     0.017010  p :     0.041091
      px      :     0.012638
      py      :     0.011444
      dz2     :     0.000114  d :     0.005131
      dxz     :     0.000560
      dyz     :     0.001680
      dx2y2   :     0.001913
      dxy     :     0.000865
      f0      :     0.000047  f :     0.000287
      f+1     :     0.000009
      f-1     :    -0.000001
      f+2     :     0.000020
      f-2     :     0.000060
      f+3     :     0.000003
      f-3     :     0.000150
  2 H s       :     0.897188  s :     0.897188
      pz      :     0.017010  p :     0.041091
      px      :     0.012638
      py      :     0.011444
      dz2     :     0.000114  d :     0.005131
      dxz     :     0.000560
      dyz     :     0.001680
      dx2y2   :     0.001913
      dxy     :     0.000865
      f0      :     0.000047  f :     0.000287
      f+1     :     0.000009
      f-1     :    -0.000001
      f+2     :     0.000020
      f-2     :     0.000060
      f+3     :     0.000003
      f-3     :     0.000150
  3 H s       :     0.897189  s :     0.897189
      pz      :     0.017012  p :     0.041105
      px      :     0.010860
      py      :     0.013234
      dz2     :     0.000114  d :     0.005132
      dxz     :     0.002240
      dyz     :    -0.000000
      dx2y2   :     0.000340
      dxy     :     0.002438
      f0      :     0.000047  f :     0.000287
      f+1     :    -0.000006
      f-1     :     0.000014
      f+2     :     0.000080
      f-2     :     0.000000
      f+3     :     0.000003
      f-3     :     0.000150

SPIN
  0 C s       :     0.073856  s :     0.073856
      pz      :     0.942065  p :     1.057297
      px      :     0.057639
      py      :     0.057593
      dz2     :    -0.004766  d :     0.001927
      dxz     :    -0.000000
      dyz     :     0.000000
      dx2y2   :     0.003348
      dxy     :     0.003345
      f0      :    -0.000185  f :    -0.002172
      f+1     :    -0.000989
      f-1     :    -0.000990
      f+2     :    -0.000000
      f-2     :    -0.000000
      f+3     :    -0.000008
      f-3     :     0.000000
      g0      :     0.000017  g :    -0.000046
      g+1     :    -0.000000
      g-1     :     0.000000
      g+2     :    -0.000011
      g-2     :    -0.000011
      g+3     :    -0.000009
      g-3     :    -0.000000
      g+4     :    -0.000016
      g-4     :    -0.000016
  1 H s       :    -0.061979  s :    -0.061979
      pz      :     0.017010  p :     0.015970
      px      :    -0.000306
      py      :    -0.000733
      dz2     :    -0.000040  d :     0.002247
      dxz     :     0.000560
      dyz     :     0.001680
      dx2y2   :     0.000030
      dxy     :     0.000017
      f0      :     0.000047  f :     0.000149
      f+1     :     0.000002
      f-1     :     0.000006
      f+2     :     0.000020
      f-2     :     0.000060
      f+3     :     0.000012
      f-3     :     0.000003
  2 H s       :    -0.061979  s :    -0.061979
      pz      :     0.017010  p :     0.015970
      px      :    -0.000306
      py      :    -0.000733
      dz2     :    -0.000040  d :     0.002247
      dxz     :     0.000560
      dyz     :     0.001680
      dx2y2   :     0.000030
      dxy     :     0.000017
      f0      :     0.000047  f :     0.000149
      f+1     :     0.000002
      f-1     :     0.000006
      f+2     :     0.000020
      f-2     :     0.000060
      f+3     :     0.000012
      f-3     :     0.000003
  3 H s       :    -0.062005  s :    -0.062005
      pz      :     0.017012  p :     0.015972
      px      :    -0.000944
      py      :    -0.000096
      dz2     :    -0.000040  d :     0.002247
      dxz     :     0.002240
      dyz     :    -0.000000
      dx2y2   :     0.000010
      dxy     :     0.000037
      f0      :     0.000047  f :     0.000149
      f+1     :     0.000008
      f-1     :     0.000000
      f+2     :     0.000080
      f-2     :     0.000000
      f+3     :     0.000012
      f-3     :     0.000003


                     *******************************
                     * LOEWDIN POPULATION ANALYSIS *
                     *******************************

-------------------------------------------
LOEWDIN ATOMIC CHARGES AND SPIN POPULATIONS
-------------------------------------------
   0 C :    0.410541    0.747488
   1 H :   -0.136847    0.084171
   2 H :   -0.136847    0.084171
   3 H :   -0.136848    0.084171

----------------------------------------------------
LOEWDIN REDUCED ORBITAL CHARGES AND SPIN POPULATIONS
----------------------------------------------------
CHARGE
  0 C s       :     2.677303  s :     2.677303
      pz      :     0.722245  p :     2.765287
      px      :     1.021522
      py      :     1.021520
      dz2     :     0.009253  d :     0.127737
      dxz     :     0.000000
      dyz     :     0.000000
      dx2y2   :     0.059242
      dxy     :     0.059242
      f0      :     0.002529  f :     0.016999
      f+1     :     0.003153
      f-1     :     0.003153
      f+2     :     0.000000
      f-2     :     0.000000
      f+3     :     0.008164
      f-3     :     0.000000
      g0      :     0.000166  g :     0.002134
      g+1     :     0.000000
      g-1     :     0.000000
      g+2     :     0.000642
      g-2     :     0.000642
      g+3     :     0.000377
      g-3     :     0.000000
      g+4     :     0.000153
      g-4     :     0.000153
  1 H s       :     0.843022  s :     0.843022
      pz      :     0.065585  p :     0.218371
      px      :     0.065149
      py      :     0.087636
      dz2     :     0.004500  d :     0.065830
      dxz     :     0.005726
      dyz     :     0.017178
      dx2y2   :     0.022042
      dxy     :     0.016384
      f0      :     0.001143  f :     0.009624
      f+1     :     0.000417
      f-1     :     0.000810
      f+2     :     0.000496
      f-2     :     0.001488
      f+3     :     0.002022
      f-3     :     0.003248
  2 H s       :     0.843022  s :     0.843022
      pz      :     0.065585  p :     0.218371
      px      :     0.065149
      py      :     0.087636
      dz2     :     0.004500  d :     0.065830
      dxz     :     0.005726
      dyz     :     0.017178
      dx2y2   :     0.022042
      dxy     :     0.016384
      f0      :     0.001143  f :     0.009624
      f+1     :     0.000417
      f-1     :     0.000810
      f+2     :     0.000496
      f-2     :     0.001488
      f+3     :     0.002022
      f-3     :     0.003248
  3 H s       :     0.843022  s :     0.843022
      pz      :     0.065585  p :     0.218372
      px      :     0.098880
      py      :     0.053907
      dz2     :     0.004500  d :     0.065830
      dxz     :     0.022904
      dyz     :     0.000000
      dx2y2   :     0.013554
      dxy     :     0.024872
      f0      :     0.001143  f :     0.009624
      f+1     :     0.001006
      f-1     :     0.000221
      f+2     :     0.001984
      f-2     :    -0.000000
      f+3     :     0.002022
      f-3     :     0.003248

SPIN
  0 C s       :     0.013376  s :     0.013376
      pz      :     0.722245  p :     0.742181
      px      :     0.009969
      py      :     0.009968
      dz2     :    -0.004346  d :    -0.008160
      dxz     :     0.000000
      dyz     :     0.000000
      dx2y2   :    -0.001907
      dxy     :    -0.001907
      f0      :     0.002529  f :    -0.000187
      f+1     :    -0.000995
      f-1     :    -0.000995
      f+2     :     0.000000
      f-2     :    -0.000000
      f+3     :    -0.000727
      f-3     :     0.000000
      g0      :     0.000007  g :     0.000277
      g+1     :     0.000000
      g-1     :     0.000000
      g+2     :    -0.000026
      g-2     :    -0.000026
      g+3     :     0.000377
      g-3     :     0.000000
      g+4     :    -0.000027
      g-4     :    -0.000027
  1 H s       :    -0.015076  s :    -0.015076
      pz      :     0.065585  p :     0.071701
      px      :     0.001884
      py      :     0.004232
      dz2     :    -0.000117  d :     0.024286
      dxz     :     0.005726
      dyz     :     0.017178
      dx2y2   :     0.000701
      dxy     :     0.000798
      f0      :     0.001143  f :     0.003260
      f+1     :    -0.000010
      f-1     :    -0.000021
      f+2     :     0.000496
      f-2     :     0.001488
      f+3     :     0.000052
      f-3     :     0.000111
  2 H s       :    -0.015076  s :    -0.015076
      pz      :     0.065585  p :     0.071701
      px      :     0.001884
      py      :     0.004232
      dz2     :    -0.000117  d :     0.024286
      dxz     :     0.005726
      dyz     :     0.017178
      dx2y2   :     0.000702
      dxy     :     0.000798
      f0      :     0.001143  f :     0.003260
      f+1     :    -0.000010
      f-1     :    -0.000021
      f+2     :     0.000496
      f-2     :     0.001488
      f+3     :     0.000052
      f-3     :     0.000111
  3 H s       :    -0.015077  s :    -0.015077
      pz      :     0.065585  p :     0.071701
      px      :     0.005407
      py      :     0.000709
      dz2     :    -0.000117  d :     0.024286
      dxz     :     0.022904
      dyz     :     0.000000
      dx2y2   :     0.000846
      dxy     :     0.000653
      f0      :     0.001143  f :     0.003260
      f+1     :    -0.000026
      f-1     :    -0.000004
      f+2     :     0.001984
      f-2     :    -0.000000
      f+3     :     0.000052
      f-3     :     0.000111


                      *****************************
                      * MAYER POPULATION ANALYSIS *
                      *****************************

  NA   - Mulliken gross atomic population
  ZA   - Total nuclear charge
  QA   - Mulliken gross atomic charge
  VA   - Mayer's total valence
  BVA  - Mayer's bonded valence
  FA   - Mayer's free valence

  ATOM       NA         ZA         QA         VA         BVA        FA
  0 C      6.1689     6.0000    -0.1689     3.8436     2.9433     0.9003
  1 H      0.9437     1.0000     0.0563     1.0181     1.0140     0.0041
  2 H      0.9437     1.0000     0.0563     1.0181     1.0140     0.0041
  3 H      0.9437     1.0000     0.0563     1.0182     1.0140     0.0042

  Mayer bond orders larger than 0.100000
B(  0-C ,  1-H ) :   0.9811 B(  0-C ,  2-H ) :   0.9811 B(  0-C ,  3-H ) :   0.9811 


-------
TIMINGS
-------

Total SCF time: 0 days 0 hours 0 min 7 sec 

Total time                  ....       7.719 sec
Sum of individual times     ....       6.718 sec  ( 87.0%)

Fock matrix formation       ....       5.322 sec  ( 68.9%)
  Split-RI-J                ....       0.700 sec  ( 13.1% of F)
  XC integration            ....       1.947 sec  ( 36.6% of F)
    Basis function eval.    ....       0.056 sec  (  2.9% of XC)
    Density eval.           ....       0.073 sec  (  3.8% of XC)
    XC-Functional eval.     ....       0.018 sec  (  0.9% of XC)
    XC-Potential eval.      ....       0.124 sec  (  6.4% of XC)
Diagonalization             ....       0.332 sec  (  4.3%)
Density matrix formation    ....       0.013 sec  (  0.2%)
Population analysis         ....       0.209 sec  (  2.7%)
Initial guess               ....       0.244 sec  (  3.2%)
Orbital Transformation      ....       0.000 sec  (  0.0%)
Orbital Orthonormalization  ....       0.000 sec  (  0.0%)
DIIS solution               ....       0.381 sec  (  4.9%)
Grid generation             ....       0.216 sec  (  2.8%)

Maximum memory used throughout the entire SCF-calculation: 9.7 MB

-------------------------   --------------------
FINAL SINGLE POINT ENERGY       -39.792173619213
-------------------------   --------------------


                            ***************************************
                            *     ORCA property calculations      *
                            ***************************************

                                    ---------------------
                                    Active property flags
                                    ---------------------
   (+) Dipole Moment


------------------------------------------------------------------------------
                       ORCA ELECTRIC PROPERTIES CALCULATION
------------------------------------------------------------------------------

Dipole Moment Calculation                       ... on
Quadrupole Moment Calculation                   ... off
Polarizability Calculation                      ... off
GBWName                                         ... inp.gbw
Electron density                                ... inp.scfp
The origin for moment calculation is the CENTER OF MASS  = ( 0.000000,  0.000000  0.000000)

-------------
DIPOLE MOMENT
-------------
                                X             Y             Z
Electronic contribution:     -0.00000       0.00000       0.00000
Nuclear contribution   :      0.00000       0.00000       0.00000
                        -----------------------------------------
Total Dipole Moment    :     -0.00000       0.00000       0.00000
                        -----------------------------------------
Magnitude (a.u.)       :      0.00000
Magnitude (Debye)      :      0.00000



--------------------
Rotational spectrum 
--------------------
 
Rotational constants in cm-1:     9.606356     9.606356     4.803178 
Rotational constants in MHz : 287991.321772 287991.320692 143995.660616 

 Dipole components along the rotational axes: 
x,y,z [a.u.] :    -0.000001     0.000000     0.000000 
x,y,z [Debye]:    -0.000003     0.000000     0.000000 

 

Timings for individual modules:

Sum of individual times         ...        9.494 sec (=   0.158 min)
GTO integral calculation        ...        1.132 sec (=   0.019 min)  11.9 %
SCF iterations                  ...        8.362 sec (=   0.139 min)  88.1 %
                             ****ORCA TERMINATED NORMALLY****
TOTAL RUN TIME: 0 days 0 hours 0 minutes 10 seconds 691 msec
